# Forces git to create parent directory.
